#------------------------------------------------------------------------------
#$Date: 2012-02-28 15:44:07 +0000 (Tue, 28 Feb 2012) $
#$Revision: 35913 $
#$URL: file:///home/coder/svn-repositories/cod/cif/9/00/31/9003103.cif $
#------------------------------------------------------------------------------
#
# This file is available in the Crystallography Open Database (COD),
# http://www.crystallography.net/. The original data for this entry
# were provided the American Mineralogist Crystal Structure Database,
# http://rruff.geo.arizona.edu/AMS/amcsd.php
#
# The file may be used within the scientific community so long as
# proper attribution is given to the journal article from which the
# data were obtained.
#
data_9003103
loop_
_publ_author_name
'Capitani, G.'
'Mellini, M.'
_publ_section_title
;
 The modulated crystal structure of antigorite: The m = 17 polysome
;
_journal_name_full               'American Mineralogist'
_journal_page_first              147
_journal_page_last               158
_journal_volume                  89
_journal_year                    2004
_chemical_formula_sum            'H79 Mg48 O147 Si34'
_chemical_name_mineral           Antigorite
_space_group_IT_number           6
_symmetry_space_group_name_Hall  'P -2y'
_symmetry_space_group_name_H-M   'P 1 m 1'
_cell_angle_alpha                90
_cell_angle_beta                 91.32
_cell_angle_gamma                90
_cell_length_a                   43.505
_cell_length_b                   9.251
_cell_length_c                   7.263
_cell_volume                     2922.326
_exptl_crystal_density_diffrn    2.587
_[local]_cod_chemical_formula_sum_orig 'Si34 Mg48 O147 H79'
_cod_database_code               9003103
_amcsd_database_code             AMCSD#0003191
loop_
_symmetry_equiv_pos_as_xyz
x,y,z
x,-y,z
loop_
_atom_type_symbol
_atom_type_oxidation_number
  Mg2+   2.000
  Si4+   4.000
  H1+    1.000
  O2-   -2.000
loop_
_atom_site_aniso_label
_atom_site_aniso_U_11
_atom_site_aniso_U_22
_atom_site_aniso_U_33
_atom_site_aniso_U_12
_atom_site_aniso_U_13
_atom_site_aniso_U_23
SiT1 0.00700 0.00400 0.01700 0.00000 0.00500 -0.00100
SiT2 0.00500 0.00400 0.01800 -0.00200 0.00300 -0.00200
SiT3 0.00800 0.00500 0.00800 0.00100 0.00100 0.00100
SiT4 0.00700 0.00600 0.00600 0.00200 0.00300 0.00100
SiT5 0.00600 0.01000 0.00200 0.00100 0.00100 -0.00100
SiT6 0.00600 0.00600 0.00400 -0.00100 -0.00200 0.00000
SiT7 0.00800 0.00200 0.00600 0.00100 -0.00200 0.00100
SiT8 0.00900 0.00700 0.00800 0.00100 -0.00200 0.00200
SiT9 0.00300 0.00500 0.00700 0.00100 0.00000 0.00100
SiT10 0.00200 0.00800 0.01000 0.00300 -0.00100 0.00300
SiT11 0.00200 0.00400 0.01200 0.00200 -0.00100 -0.00100
SiT12 0.00200 0.00700 0.00800 0.00200 0.00300 0.00200
SiT13 0.00300 0.00300 0.01100 -0.00100 0.00100 0.00400
SiT14 0.00300 0.00200 0.00900 0.00200 -0.00100 0.00000
SiT15 0.00200 0.00500 0.01300 -0.00400 -0.00100 -0.00400
SiT16 0.00300 0.00800 0.00900 -0.00100 0.00400 0.00000
SiT17 0.01000 0.00800 0.01800 -0.00300 0.00700 -0.00100
MgM1A 0.01000 0.00900 0.02600 0.00000 0.00100 0.00000
MgM1B 0.00900 0.00900 0.02800 -0.00100 -0.00100 0.00200
MgM2A 0.01000 0.01100 0.02900 0.00000 0.00400 0.00000
MgM2B 0.01100 0.00800 0.02500 0.00000 0.00500 0.00200
MgM3A 0.01200 0.01000 0.03000 0.00000 0.00400 0.00000
MgM3B 0.00800 0.00800 0.01800 0.00000 0.00200 -0.00100
MgM4A 0.00900 0.00800 0.01900 0.00000 0.00200 0.00000
MgM4B 0.01000 0.00800 0.03000 0.00000 0.00500 -0.00200
MgM5A 0.01400 0.00500 0.00300 0.00000 0.00000 0.00000
MgM5B 0.01400 0.01400 0.01200 -0.00200 0.00300 0.00200
MgM6A 0.01800 0.00900 0.00700 0.00000 0.00000 0.00000
MgM6B 0.01500 0.00600 0.00300 0.00300 0.00100 0.00000
MgM7A 0.01600 0.00700 0.01000 0.00000 0.00500 0.00000
MgM7B 0.01400 0.00800 0.01100 0.00000 0.00400 0.00300
MgM8A 0.01200 0.01000 0.01200 0.00000 0.00500 0.00000
MgM8B 0.01700 0.00600 0.01300 0.00200 0.00700 0.00100
MgM9A 0.01300 0.00900 0.01500 0.00000 0.00200 0.00000
MgM9B 0.00800 0.01300 0.01900 0.00200 0.00100 0.00100
MgM10A 0.00500 0.00700 0.02600 0.00000 -0.00400 0.00000
MgM10B 0.00500 0.01000 0.02600 0.00200 -0.00300 -0.00100
MgM11B 0.00300 0.01300 0.02000 -0.00300 -0.00100 -0.00100
MgM12A 0.00600 0.01400 0.02800 0.00000 0.00000 0.00000
MgM12B 0.00100 0.00900 0.03100 0.00100 -0.00100 -0.00400
MgM13A 0.00800 0.01200 0.02700 0.00000 -0.00200 0.00000
MgM13B 0.00400 0.00700 0.01300 -0.00200 -0.00300 0.00100
MgM14A 0.01300 0.01000 0.01100 0.00000 -0.00300 0.00000
MgM14B 0.01100 0.00800 0.01000 0.00100 -0.00300 0.00200
MgM15A 0.00800 0.00500 0.01000 0.00000 -0.00600 0.00000
MgM15B 0.01000 0.00900 0.02600 0.00100 -0.00400 -0.00100
MgM16A 0.01000 0.00700 0.02500 0.00000 -0.00700 0.00000
MgM16B 0.01000 0.01200 0.02400 0.00000 -0.00500 0.00200
OA1 0.01700 0.01400 0.00500 0.00000 0.00100 0.00500
OA2 0.02900 0.00900 0.00900 -0.00300 0.00900 -0.00100
OA3 0.02000 0.00100 0.01000 0.00100 0.00700 -0.00100
OA4 0.01500 0.00100 0.02500 0.00100 0.00900 0.00000
OA5 0.03200 0.00400 0.00000 0.00500 0.00000 0.00000
OA6 0.02500 0.00800 0.00300 0.00300 0.00500 0.00700
OA7 0.02500 0.01000 0.01000 0.00400 0.00600 0.00400
OA8 0.01800 0.01500 0.02100 -0.00600 0.00500 -0.00100
OA9 0.01000 0.02100 0.01500 0.00100 0.00600 0.00300
OA10 0.02000 0.00700 0.02500 0.00400 -0.00200 0.00000
OA11 0.00800 0.01200 0.01100 0.00000 -0.00700 -0.00500
OA12 0.00100 0.01300 0.02900 0.00400 -0.00500 -0.00200
OA15 0.01300 0.02300 0.01200 0.00500 -0.00700 0.00000
OA16 0.00100 0.02300 0.04700 0.00000 -0.01000 -0.00300
OA17 0.00500 0.01600 0.05500 -0.00400 -0.00300 0.00000
OB1A 0.05100 0.02200 0.03600 0.00000 -0.00700 0.00000
OB1B 0.01200 0.02900 0.05600 -0.01100 0.02500 -0.00600
OB2A 0.01800 0.01400 0.00800 0.00000 0.00300 0.00000
OB2B 0.02000 0.04500 0.02000 -0.00300 0.00200 0.01000
OB3A 0.00200 0.00400 0.01100 0.00000 -0.00300 0.00000
OB3B 0.03700 0.01300 0.02000 -0.00200 0.01000 0.00600
OB4A 0.01400 0.00800 0.01200 0.00000 -0.01000 0.00000
OB4B 0.02300 0.02200 0.01200 0.00000 0.00200 -0.00600
OB5A 0.02700 0.00400 0.00000 0.00000 0.00400 0.00000
OB5B 0.02000 0.02200 0.00400 -0.00600 0.00400 0.00400
OB6A 0.01200 0.00000 0.00500 0.00000 -0.00600 0.00000
OB6B 0.00900 0.02200 0.00300 -0.00300 0.00100 -0.00300
OB7A 0.01700 0.00000 0.00000 0.00000 0.00100 0.00000
OB7B 0.01000 0.00900 0.00800 -0.00700 0.00300 -0.00200
OB8A 0.02500 0.00800 0.00300 0.00000 -0.00300 0.00000
OB8B 0.02100 0.01700 0.04500 -0.00100 -0.01300 -0.02100
OB9A 0.01300 0.01500 0.02500 0.00000 0.00500 0.00000
OB9B 0.01800 0.01500 0.03600 0.00400 -0.01300 -0.00700
OB10A 0.06000 0.00000 0.00000 0.00000 -0.02100 0.00000
OB10B 0.01500 0.03200 0.01100 0.00800 -0.00100 -0.01500
OB11A 0.02000 0.22000 0.22000 0.00000 -0.00500 0.00000
OB11B 0.02000 0.01100 0.02500 -0.01100 -0.01000 0.00400
OB12A 0.03600 0.26000 0.13900 0.00000 -0.00700 0.00000
OB12B 0.01700 0.01700 0.02500 -0.00100 -0.00200 -0.00400
OB13A 0.05000 0.07300 0.11800 0.00000 0.00300 0.00000
OB13B 0.01300 0.01600 0.02600 -0.01700 -0.00500 0.01000
OB14A 0.04100 0.09700 0.14300 0.00000 0.01000 0.00000
OB14B 0.00400 0.02800 0.01200 -0.01000 -0.00400 0.00600
OB15A 0.13400 0.04600 0.09300 0.00000 0.05500 0.00000
OB15B 0.00900 0.02700 0.01700 0.01300 -0.00900 -0.01000
OB16A 0.09400 0.09000 0.08000 0.00000 -0.02500 0.00000
OB16B 0.04400 0.02500 0.01000 -0.02800 -0.00800 0.01600
OB17A 0.23000 0.02100 0.45000 0.00000 0.25000 0.00000
OB17B 0.05400 0.02000 0.14900 0.01000 0.06600 -0.01800
OHV0 0.01500 0.00000 0.04800 0.00000 -0.00100 0.00000
OHV1 0.01700 0.00400 0.01000 0.00000 -0.00200 0.00000
OHV2 0.03700 0.00100 0.00100 0.00000 0.00200 0.00000
OHV3 0.02600 0.00400 0.01100 0.00000 0.00800 0.00000
OHV4 0.03100 0.00500 0.00600 0.00000 -0.00600 0.00000
OHV5 0.02500 0.00700 0.00500 0.00000 0.00600 0.00000
OHV6 0.02300 0.01000 0.00600 0.00000 -0.00400 0.00000
OHV7 0.01200 0.01200 0.02700 0.00000 0.00300 0.00000
OHV8 0.01300 0.02200 0.02300 0.00000 -0.00200 0.00000
OHV9 0.02200 0.00700 0.01000 0.00000 0.00600 0.00000
OHV10 0.00900 0.01400 0.01200 0.00000 0.00400 0.00000
OHV11 0.00100 0.01100 0.03500 0.00000 0.00200 0.00000
OHV14 0.00200 0.03000 0.04200 0.00000 -0.00600 0.00000
OHV15 0.00500 0.01700 0.04900 0.00000 0.00700 0.00000
OHV16 0.02100 0.03200 0.02900 0.00000 0.00200 0.00000
OW1A 0.02600 0.02500 0.02500 0.00000 0.00100 0.00000
OW1B 0.01700 0.02500 0.03200 -0.00300 0.00800 0.00300
OW2A 0.01100 0.01800 0.02500 0.00000 0.00100 0.00000
OW2B 0.01300 0.02100 0.01500 0.00500 0.00500 0.00100
OW3A 0.03200 0.00900 0.00800 0.00000 0.00800 0.00000
OW3B 0.02300 0.00800 0.00500 0.00000 0.00900 0.00400
OW4A 0.02400 0.00700 0.00700 0.00000 0.00300 0.00000
OW4B 0.03100 0.00600 0.00300 0.00200 0.00100 0.00200
OW5A 0.03100 0.01200 0.00000 0.00000 -0.00100 0.00000
OW5B 0.03600 0.00900 0.00000 0.00200 0.00500 0.00600
OW6A 0.01500 0.00900 0.01000 0.00000 0.00500 0.00000
OW6B 0.02700 0.00900 0.00200 -0.00200 0.00300 -0.00100
OW7A 0.01500 0.00800 0.02100 0.00000 -0.00200 0.00000
OW7B 0.01900 0.00400 0.02300 0.00300 0.00700 0.00700
OW8A 0.01000 0.00600 0.01500 0.00000 -0.00300 0.00000
OW8B 0.01300 0.00400 0.02100 0.00400 0.00000 -0.00200
OW9A 0.01500 0.02500 0.03000 0.00000 0.01000 0.00000
OW9B 0.01800 0.02900 0.01400 0.00200 0.00500 0.00000
OW10A 0.02300 0.02100 0.01000 0.00000 0.00500 0.00000
OW10B 0.01000 0.02100 0.00900 0.00300 -0.00200 0.00600
OW11A 0.00700 0.01600 0.03400 0.00000 -0.00100 0.00000
OW11B 0.00800 0.02200 0.03600 -0.00200 -0.00100 -0.00200
OW13A 0.01000 0.01800 0.03200 0.00000 -0.00700 0.00000
OW13B 0.00400 0.02600 0.03500 0.00300 0.00000 0.00200
OW14A 0.01300 0.01400 0.02700 0.00000 -0.00400 0.00000
OW14B 0.01100 0.01900 0.02900 -0.00300 -0.01400 -0.00400
OW15A 0.00900 0.01300 0.03000 0.00000 -0.00900 0.00000
OW15B 0.01400 0.00200 0.03200 0.00200 -0.00500 -0.00100
loop_
_atom_site_label
_atom_site_type_symbol
_atom_site_fract_x
_atom_site_fract_y
_atom_site_fract_z
_atom_site_U_iso_or_equiv
SiT1 Si4+ 0.02160 0.16630 0.50460 0.00900
SiT2 Si4+ 0.08170 0.33420 0.46770 0.00900
SiT3 Si4+ 0.14120 0.16540 0.43980 0.00700
SiT4 Si4+ 0.20070 0.33410 0.42940 0.00600
SiT5 Si4+ 0.26100 0.16640 0.42720 0.00600
SiT6 Si4+ 0.32140 0.33400 0.43110 0.00500
SiT7 Si4+ 0.38190 0.16610 0.44460 0.00500
SiT8 Si4+ 0.44180 0.33360 0.46910 0.00800
SiT9 Si4+ 0.50100 0.16540 0.50500 0.00500
SiT10 Si4+ 0.55750 0.16460 -0.23120 0.00700
SiT11 Si4+ 0.61690 0.33390 -0.19150 0.00600
SiT12 Si4+ 0.67640 0.16630 -0.17250 0.00500
SiT13 Si4+ 0.73670 0.33260 -0.16130 0.00600
SiT14 Si4+ 0.79700 0.16550 -0.15910 0.00400
SiT15 Si4+ 0.85740 0.33320 -0.16520 0.00700
SiT16 Si4+ 0.91730 0.16560 -0.18480 0.00700
SiT17 Si4+ 0.97660 0.33530 -0.22260 0.01200
MgM1A Mg2+ 0.03010 0.00000 0.12540 0.01500
MgM1B Mg2+ 0.03020 0.33360 0.12450 0.01500
MgM2A Mg2+ 0.09310 0.50000 0.08500 0.01700
MgM2B Mg2+ 0.09300 0.16570 0.08290 0.01500
MgM3A Mg2+ 0.15560 0.00000 0.06080 0.01700
MgM3B Mg2+ 0.15540 0.33360 0.05940 0.01200
MgM4A Mg2+ 0.21790 0.50000 0.04880 0.01200
MgM4B Mg2+ 0.21770 0.16670 0.04940 0.01600
MgM5A Mg2+ 0.27980 0.00000 0.04830 0.00700
MgM5B Mg2+ 0.27950 0.33350 0.04820 0.01300
MgM6A Mg2+ 0.34200 0.50000 0.05540 0.01100
MgM6B Mg2+ 0.34190 0.16670 0.05520 0.00800
MgM7A Mg2+ 0.40440 0.00000 0.07270 0.01100
MgM7B Mg2+ 0.40420 0.33340 0.07160 0.01100
MgM8A Mg2+ 0.46720 0.50000 0.10090 0.01200
MgM8B Mg2+ 0.46700 0.16600 0.09980 0.01200
MgM9A Mg2+ 0.52980 0.00000 0.13790 0.01200
MgM9B Mg2+ 0.52990 0.33340 0.13800 0.01300
MgM10A Mg2+ 0.59210 0.50000 0.17560 0.01300
MgM10B Mg2+ 0.59240 0.16610 0.17500 0.01400
MgM11A Mg2+ 0.65420 0.00000 0.20350 0.01100
MgM11B Mg2+ 0.65410 0.33360 0.20460 0.01200
MgM12A Mg2+ 0.71650 0.50000 0.21740 0.01600
MgM12B Mg2+ 0.71640 0.16610 0.21750 0.01400
MgM13A Mg2+ 0.77870 0.00000 0.22540 0.01600
MgM13B Mg2+ 0.77860 0.33320 0.22290 0.00800
MgM14A Mg2+ 0.84140 0.50000 0.22210 0.01100
MgM14B Mg2+ 0.84140 0.16610 0.21960 0.01000
MgM15A Mg2+ 0.90400 0.00000 0.21000 0.00800
MgM15B Mg2+ 0.90400 0.33380 0.20490 0.01500
MgM16A Mg2+ 0.96690 0.50000 0.17270 0.01400
MgM16B Mg2+ 0.96710 0.16690 0.17210 0.01500
OA1 O2- 0.01210 0.16770 0.28080 0.01200
OA2 O2- 0.07570 0.33280 0.24630 0.01500
OA3 O2- 0.13760 0.16650 0.22180 0.01000
OA4 O2- 0.19910 0.33440 0.21400 0.01400
OA5 O2- 0.26060 0.16600 0.20650 0.01200
OA6 O2- 0.32230 0.33320 0.21750 0.01200
OA7 O2- 0.38350 0.16640 0.22410 0.01500
OA8 O2- 0.44520 0.33290 0.25030 0.01800
OA9 O2- 0.50780 0.16800 0.28470 0.01500
OA10 O2- 0.55200 0.16640 -0.00530 0.01700
OA11 O2- 0.61460 0.33380 0.02850 0.01100
OA12 O2- 0.67590 0.16700 0.05460 0.01400
OA13 O2- 0.73740 0.33260 0.06960 0.01500
OA14 O2- 0.79880 0.16670 0.06770 0.01700
OA15 O2- 0.86020 0.33300 0.06230 0.01600
OA16 O2- 0.92210 0.16520 0.03440 0.02400
OA17 O2- 0.98470 0.33220 -0.00420 0.02500
OB1A O2- 0.02300 0.00000 0.57830 0.03700
OB1B O2- 0.05690 0.24530 0.58900 0.03200
OB2A O2- 0.08100 0.50000 0.54730 0.01300
OB2B O2- 0.11380 0.25980 0.52810 0.02800
OB3A O2- 0.13930 0.00000 0.52010 0.00600
OB3B O2- 0.17210 0.24090 0.51570 0.02300
OB4A O2- 0.19930 0.50000 0.50930 0.01200
OB4B O2- 0.23150 0.26240 0.51050 0.01900
OB5A O2- 0.25870 0.00000 0.50680 0.01000
OB5B O2- 0.29220 0.23810 0.51410 0.01500
OB6A O2- 0.31970 0.50000 0.51370 0.00600
OB6B O2- 0.35270 0.26140 0.52430 0.01200
OB7A O2- 0.37910 0.00000 0.52620 0.00600
OB7B O2- 0.41300 0.23300 0.53830 0.00900
OB8A O2- 0.43690 0.50000 0.54520 0.01200
OB8B O2- 0.47210 0.26640 0.56730 0.02800
OB9A O2- 0.49360 0.00000 0.57320 0.01800
OB9B O2- 0.52900 0.22370 -0.35400 0.02300
OB10A O2- 0.56660 0.00000 -0.30600 0.02100
OB10B O2- 0.58650 0.26470 -0.29310 0.01900
OB11A O2- 0.61900 0.50000 -0.27000 0.15400
OB11B O2- 0.64650 0.24700 -0.26060 0.01900
OB12A O2- 0.67670 0.00000 -0.24300 0.14500
OB12B O2- 0.70530 0.25330 -0.24570 0.02000
OB13A O2- 0.73690 0.50000 -0.24200 0.08000
OB13B O2- 0.76540 0.24400 -0.23970 0.01800
OB14A O2- 0.79780 0.00000 -0.24600 0.09400
OB14B O2- 0.82510 0.25860 -0.24320 0.01500
OB15A O2- 0.85980 0.50000 -0.24800 0.09100
OB15B O2- 0.88480 0.23750 -0.25240 0.01800
OB16A O2- 0.91550 0.00000 -0.27600 0.08900
OB16B O2- 0.94310 0.26200 -0.28070 0.02600
OB17A O2- 0.97160 0.50000 -0.33300 0.23000
OB17B O2- 0.00000 0.23430 0.67600 0.07300
O-HV0 O2- 0.01170 0.50000 0.27840 0.02100
O-HV1 O2- 0.07460 0.00000 0.24110 0.01100
O-HV2 O2- 0.13640 0.50000 0.21710 0.01300
O-HV3 O2- 0.19870 0.00000 0.20630 0.01400
O-HV4 O2- 0.26080 0.50000 0.19960 0.01400
O-HV5 O2- 0.32180 0.00000 0.20800 0.01200
O-HV6 O2- 0.38320 0.50000 0.21990 0.01300
O-HV7 O2- 0.44470 0.00000 0.24520 0.01700
O-HV8 O2- 0.50700 0.50000 0.27660 0.01900
O-HV9 O2- 0.55180 0.50000 -0.00390 0.01300
O-HV10 O2- 0.61430 0.00000 0.02980 0.01200
O-HV11 O2- 0.67590 0.50000 0.05290 0.01600
O-HV12 O2- 0.73740 0.00000 0.06760 0.01600
O-HV13 O2- 0.79920 0.50000 0.06650 0.01700
O-HV14 O2- 0.86020 0.00000 0.05950 0.02500
O-HV15 O2- 0.92160 0.50000 0.03460 0.02400
O-HV16 O2- 0.98460 0.00000 0.00220 0.02700
OW1A O2- 0.04790 0.50000 -0.02990 0.02500
OW1B O2- 0.04830 0.16700 -0.03490 0.02500
OW2A O2- 0.11210 0.00000 -0.05990 0.01800
OW2B O2- 0.11260 0.33200 -0.05820 0.01600
OW3A O2- 0.17520 0.50000 -0.08050 0.01600
OW3B O2- 0.17500 0.16710 -0.08290 0.01200
OW4A O2- 0.23840 0.00000 -0.08940 0.01300
OW4B O2- 0.23840 0.33320 -0.08860 0.01300
OW5A O2- 0.30060 0.50000 -0.08550 0.01400
OW5B O2- 0.30100 0.16610 -0.08500 0.01500
OW6A O2- 0.36380 0.00000 -0.07500 0.01100
OW6B O2- 0.36390 0.33390 -0.07540 0.01300
OW7A O2- 0.42700 0.50000 -0.04860 0.01500
OW7B O2- 0.42710 0.16640 -0.05310 0.01500
OW8A O2- 0.48970 0.00000 -0.02390 0.01100
OW8B O2- 0.48980 0.33210 -0.02470 0.01300
OW9A O2- 0.56950 0.00000 0.29240 0.02300
OW9B O2- 0.56980 0.33240 0.29370 0.02000
OW10A O2- 0.63230 0.50000 0.32770 0.01800
OW10B O2- 0.63290 0.16790 0.32670 0.01300
OW11A O2- 0.69550 0.00000 0.34400 0.01900
OW11B O2- 0.69600 0.33300 0.34540 0.02200
OW12A O2- 0.75870 0.50000 0.35260 0.02000
OW12B O2- 0.75840 0.16880 0.35340 0.01700
OW13A O2- 0.82150 0.00000 0.35260 0.02000
OW13B O2- 0.82130 0.33300 0.35010 0.02100
OW14A O2- 0.88440 0.50000 0.34180 0.01800
OW14B O2- 0.88450 0.16690 0.34130 0.02000
OW15A O2- 0.94910 0.00000 0.31950 0.01800
OW15B O2- 0.94920 0.33310 0.31560 0.01600
HI0 H1+ 0.01170 0.50000 0.41700 0.20000
HI1 H1+ 0.07460 0.00000 0.37900 0.20000
HI2 H1+ 0.13640 0.50000 0.35600 0.20000
HI3 H1+ 0.19870 0.00000 0.34400 0.20000
HI4 H1+ 0.26080 0.50000 0.33600 0.20000
HI5 H1+ 0.32180 0.00000 0.34400 0.20000
HI6 H1+ 0.38320 0.50000 0.35700 0.20000
HI7 H1+ 0.44470 0.00000 0.38500 0.20000
HI8 H1+ 0.50700 0.50000 0.41400 0.20000
HI9 H1+ 0.55180 0.50000 -0.14300 0.20000
HI10 H1+ 0.61430 0.00000 -0.10900 0.20000
HI11 H1+ 0.67590 0.50000 -0.08600 0.20000
HI12 H1+ 0.73740 0.00000 -0.07000 0.20000
HI13 H1+ 0.79920 0.50000 -0.07100 0.20000
HI14 H1+ 0.86020 0.00000 -0.07900 0.20000
HI15 H1+ 0.92160 0.50000 -0.10400 0.20000
HI16 H1+ 0.98460 0.00000 -0.13600 0.20000
H1A H1+ 0.04790 0.50000 -0.16800 0.08200
H1B H1+ 0.04830 0.16700 -0.17200 0.08200
H2A H1+ 0.11210 0.00000 -0.19800 0.08200
H2B H1+ 0.11260 0.33200 -0.19700 0.08200
H3A H1+ 0.17520 0.50000 -0.21800 0.08200
H3B H1+ 0.17500 0.16710 -0.22200 0.08200
H4A H1+ 0.23840 0.00000 -0.22400 0.08200
H4B H1+ 0.23840 0.33320 -0.22100 0.08200
H5A H1+ 0.30060 0.50000 -0.22200 0.08200
H5B H1+ 0.30100 0.16610 -0.22000 0.08200
H6A H1+ 0.36380 0.00000 -0.21200 0.08200
H6B H1+ 0.36390 0.33390 -0.21300 0.08200
H7A H1+ 0.42700 0.50000 -0.18700 0.08200
H7B H1+ 0.42710 0.16640 -0.19300 0.08200
H8A H1+ 0.48970 0.00000 -0.16100 0.08200
H8B H1+ 0.48980 0.33210 -0.16100 0.08200
H9A H1+ 0.56950 0.00000 0.43000 0.08200
H9B H1+ 0.56980 0.33240 0.43300 0.08200
H10A H1+ 0.63230 0.50000 0.46400 0.08200
H10B H1+ 0.63290 0.16790 0.46600 0.08200
H11A H1+ 0.69550 0.00000 0.48000 0.08200
H11B H1+ 0.69600 0.33300 0.48200 0.08200
H12A H1+ 0.75870 0.50000 0.48800 0.08200
H12B H1+ 0.75840 0.16880 0.48800 0.08200
H13A H1+ 0.82150 0.00000 0.48800 0.08200
H13B H1+ 0.82130 0.33300 0.48500 0.08200
H14A H1+ 0.88440 0.50000 0.48000 0.08200
H14B H1+ 0.88450 0.16690 0.48300 0.08200
H15A H1+ 0.94910 0.00000 0.45900 0.08200
H15B H1+ 0.94920 0.33310 0.45300 0.08200
