#------------------------------------------------------------------------------
#$Date: 2012-02-28 15:44:07 +0000 (Tue, 28 Feb 2012) $
#$Revision: 35913 $
#$URL: file:///home/coder/svn-repositories/cod/cif/9/00/87/9008789.cif $
#------------------------------------------------------------------------------
#
# This file is available in the Crystallography Open Database (COD),
# http://www.crystallography.net/. The original data for this entry
# were provided the American Mineralogist Crystal Structure Database,
# http://rruff.geo.arizona.edu/AMS/amcsd.php
#
# The file may be used within the scientific community so long as
# proper attribution is given to the journal article from which the
# data were obtained.
#
data_9008789
loop_
_publ_author_name
'Wyckoff, R. W. G.'
_publ_section_title
;
 Second edition. Interscience Publishers, New York, New York
 Note: CsCl structure, cesium chloride structure
;
_journal_name_full               'Crystal Structures'
_journal_page_first              85
_journal_page_last               237
_journal_volume                  1
_journal_year                    1963
_chemical_formula_sum            'Cl Cs'
_chemical_name_mineral           CsCl
_space_group_IT_number           221
_symmetry_space_group_name_Hall  '-P 4 2 3'
_symmetry_space_group_name_H-M   'P m -3 m'
_cell_angle_alpha                90
_cell_angle_beta                 90
_cell_angle_gamma                90
_cell_length_a                   4.123
_cell_length_b                   4.123
_cell_length_c                   4.123
_cell_volume                     70.087
_exptl_crystal_density_diffrn    3.989
_[local]_cod_cif_authors_sg_H-M  'P m 3 m'
_[local]_cod_chemical_formula_sum_orig 'Cs Cl'
_cod_database_code               9008789
_amcsd_database_code             AMCSD#0011120
loop_
_symmetry_equiv_pos_as_xyz
x,y,z
z,-x,y
-y,z,-x
x,-y,z
-z,x,-y
y,-z,x
-x,y,-z
x,-z,-y
-z,y,x
y,-x,-z
-x,z,y
z,-y,-x
-y,x,z
x,z,y
-z,-y,-x
y,x,z
-x,-z,-y
z,y,x
-y,-x,-z
z,x,-y
-y,-z,x
x,y,-z
-z,-x,y
y,z,-x
-x,-y,z
-z,x,y
y,-z,-x
-x,y,z
z,-x,-y
-y,z,x
x,-y,-z
-x,z,-y
z,-y,x
-y,x,-z
x,-z,y
-z,y,-x
y,-x,z
-x,-z,y
z,y,-x
-y,-x,z
x,z,-y
-z,-y,x
y,x,-z
-z,-x,-y
y,z,x
-x,-y,-z
z,x,y
-y,-z,-x

loop_
_atom_type_symbol
_atom_type_oxidation_number
  Cs1+   1.000
  Cl1-   -1.000

loop_
_atom_site_label
_atom_site_type_symbol
_atom_site_fract_x
_atom_site_fract_y
_atom_site_fract_z
Cs Cs1+ 0.00000 0.00000 0.00000
Cl Cl1- 0.50000 0.50000 0.50000
