data_9001008
_chemical_name 'Dolomite'
loop_
_publ_author_name
'Reeder R J'
'Markgraf S A'
_journal_name_full "American Mineralogist"
_journal_volume 71
_journal_year 1986
_journal_page_first 795
_journal_page_last 804
_publ_section_title
;
 High-temperature crystal chemistry of dolomite
 Sample: Rigid-body refinement, Temperature = 24 deg C
;
_chemical_formula_sum 'Ca Mg C2 O6'
_cell_length_a 4.8069
_cell_length_b 4.8069
_cell_length_c 16.002
_cell_angle_alpha 90
_cell_angle_beta 90
_cell_angle_gamma 120
_cell_volume 320.210
_symmetry_space_group_name_H-M 'R -3'
loop_
_symmetry_equiv_pos_as_xyz
  'x,y,z'
  '2/3+x,1/3+y,1/3+z'
  '1/3+x,2/3+y,2/3+z'
  'y,-x+y,-z'
  '2/3+y,1/3-x+y,1/3-z'
  '1/3+y,2/3-x+y,2/3-z'
  '-x+y,-x,z'
  '2/3-x+y,1/3-x,1/3+z'
  '1/3-x+y,2/3-x,2/3+z'
  '-x,-y,-z'
  '2/3-x,1/3-y,1/3-z'
  '1/3-x,2/3-y,2/3-z'
  '-y,x-y,z'
  '2/3-y,1/3+x-y,1/3+z'
  '1/3-y,2/3+x-y,2/3+z'
  'x-y,x,-z'
  '2/3+x-y,1/3+x,1/3-z'
  '1/3+x-y,2/3+x,2/3-z'
loop_
_atom_type_symbol
_atom_type_oxidation_number
  Ca2+   2.000
  C4+   4.000
  O2-   -2.000
  Mg2+   -2.000 
loop_
_atom_site_label
_atom_site_type_symbol
_atom_site_fract_x
_atom_site_fract_y
_atom_site_fract_z
Ca   Ca2+   0.00000   0.00000   0.00000
Mg   Mg2+   0.00000   0.00000   0.50000
C   C4+   0.00000   0.00000   0.24293
O   O2-   0.24790  -0.03550   0.24392