#------------------------------------------------------------------------------
#$Date: 2012-02-28 12:14:52 +0000 (Tue, 28 Feb 2012) $
#$Revision: 35911 $
#$URL: file:///home/coder/svn-repositories/cod/cif/5/00/02/5000217.cif $
#------------------------------------------------------------------------------
#
# This file is available in the Crystallography Open Database (COD),
# http://www.crystallography.net/
#
# All data on this site have been placed in the public domain by the
# contributors.
#
data_5000217
_chemical_name_systematic          'Iron'
_chemical_name_mineral             'Iron'
_chemical_formula_structural       'Fe'
_chemical_formula_sum              'Fe'
_publ_section_title                'A low-temperature X-ray camera'
loop_
_publ_author_name
  'Owen, E A'
  'Williams, G I'
_journal_name_full                 'Journal of Scientific Instruments'
_journal_volume                    31
_journal_year                      1954
_journal_page_first                49
_journal_page_last                 54
_cell_length_a                     2.8608(4)
_cell_length_b                     2.8608(4)
_cell_length_c                     2.8608(4)
_cell_angle_alpha                  90
_cell_angle_beta                   90
_cell_angle_gamma                  90
_cell_volume                       23.4
_cell_formula_units_Z              2
_exptl_crystal_density_meas        7.87
_symmetry_space_group_name_H-M     'I m -3 m'
_symmetry_Int_Tables_number        229
_symmetry_cell_setting             cubic
loop_
_symmetry_equiv_pos_as_xyz
  'x,y,z'
  'y,z,x'
  'z,x,y'
  'x,z,y'
  'y,x,z'
  'z,y,x'
  'x,-y,-z'
  'y,-z,-x'
  'z,-x,-y'
  'x,-z,-y'
  'y,-x,-z'
  'z,-y,-x'
  '-x,y,-z'
  '-y,z,-x'
  '-z,x,-y'
  '-x,z,-y'
  '-y,x,-z'
  '-z,y,-x'
  '-x,-y,z'
  '-y,-z,x'
  '-z,-x,y'
  '-x,-z,y'
  '-y,-x,z'
  '-z,-y,x'
  '-x,-y,-z'
  '-y,-z,-x'
  '-z,-x,-y'
  '-x,-z,-y'
  '-y,-x,-z'
  '-z,-y,-x'
  '-x,y,z'
  '-y,z,x'
  '-z,x,y'
  '-x,z,y'
  '-y,x,z'
  '-z,y,x'
  'x,-y,z'
  'y,-z,x'
  'z,-x,y'
  'x,-z,y'
  'y,-x,z'
  'z,-y,x'
  'x,y,-z'
  'y,z,-x'
  'z,x,-y'
  'x,z,-y'
  'y,x,-z'
  'z,y,-x'
  '1/2+x,1/2+y,1/2+z'
  '1/2+y,1/2+z,1/2+x'
  '1/2+z,1/2+x,1/2+y'
  '1/2+x,1/2+z,1/2+y'
  '1/2+y,1/2+x,1/2+z'
  '1/2+z,1/2+y,1/2+x'
  '1/2+x,1/2-y,1/2-z'
  '1/2+y,1/2-z,1/2-x'
  '1/2+z,1/2-x,1/2-y'
  '1/2+x,1/2-z,1/2-y'
  '1/2+y,1/2-x,1/2-z'
  '1/2+z,1/2-y,1/2-x'
  '1/2-x,1/2+y,1/2-z'
  '1/2-y,1/2+z,1/2-x'
  '1/2-z,1/2+x,1/2-y'
  '1/2-x,1/2+z,1/2-y'
  '1/2-y,1/2+x,1/2-z'
  '1/2-z,1/2+y,1/2-x'
  '1/2-x,1/2-y,1/2+z'
  '1/2-y,1/2-z,1/2+x'
  '1/2-z,1/2-x,1/2+y'
  '1/2-x,1/2-z,1/2+y'
  '1/2-y,1/2-x,1/2+z'
  '1/2-z,1/2-y,1/2+x'
  '1/2-x,1/2-y,1/2-z'
  '1/2-y,1/2-z,1/2-x'
  '1/2-z,1/2-x,1/2-y'
  '1/2-x,1/2-z,1/2-y'
  '1/2-y,1/2-x,1/2-z'
  '1/2-z,1/2-y,1/2-x'
  '1/2-x,1/2+y,1/2+z'
  '1/2-y,1/2+z,1/2+x'
  '1/2-z,1/2+x,1/2+y'
  '1/2-x,1/2+z,1/2+y'
  '1/2-y,1/2+x,1/2+z'
  '1/2-z,1/2+y,1/2+x'
  '1/2+x,1/2-y,1/2+z'
  '1/2+y,1/2-z,1/2+x'
  '1/2+z,1/2-x,1/2+y'
  '1/2+x,1/2-z,1/2+y'
  '1/2+y,1/2-x,1/2+z'
  '1/2+z,1/2-y,1/2+x'
  '1/2+x,1/2+y,1/2-z'
  '1/2+y,1/2+z,1/2-x'
  '1/2+z,1/2+x,1/2-y'
  '1/2+x,1/2+z,1/2-y'
  '1/2+y,1/2+x,1/2-z'
  '1/2+z,1/2+y,1/2-x'
loop_
_atom_type_symbol
_atom_type_oxidation_number
  Fe0    0.000
loop_
_atom_site_label
_atom_site_type_symbol
_atom_site_symmetry_multiplicity
_atom_site_Wyckoff_symbol
_atom_site_fract_x
_atom_site_fract_y
_atom_site_fract_z
_atom_site_occupancy
_atom_site_attached_hydrogens
_atom_site_calc_flag
  Fe1   Fe0    2 a 0. 0. 0. 1.  0 d
_cod_database_code 5000217
