#------------------------------------------------------------------------------
#$Date: 2012-02-28 15:44:07 +0000 (Tue, 28 Feb 2012) $
#$Revision: 35913 $
#$URL: file:///home/coder/svn-repositories/cod/cif/9/01/31/9013164.cif $
#------------------------------------------------------------------------------
#
# This file is available in the Crystallography Open Database (COD),
# http://www.crystallography.net/. The original data for this entry
# were provided the American Mineralogist Crystal Structure Database,
# http://rruff.geo.arizona.edu/AMS/amcsd.php
#
# The file may be used within the scientific community so long as
# proper attribution is given to the journal article from which the
# data were obtained.
#
data_9013164
loop_
_publ_author_name
'Comodi, P.'
'Nazzareni, S.'
'Zanazzi, P. F.'
'Speziale, S.'
_publ_section_title
;
 High-pressure behavior of gypsum: A single-crystal X-ray study
 Locality: Valle di Caramanico, Abruzzo, Italy
 Note: P = 0.0001 GPa
;
_journal_name_full               'American Mineralogist'
_journal_page_first              1530
_journal_page_last               1537
_journal_volume                  93
_journal_year                    2008
_chemical_formula_sum            'Ca H4 O6 S'
_chemical_name_mineral           Gypsum
_space_group_IT_number           15
_symmetry_space_group_name_Hall  '-C 2yc'
_symmetry_space_group_name_H-M   'C 1 2/c 1'
_cell_angle_alpha                90
_cell_angle_beta                 114.11
_cell_angle_gamma                90
_cell_length_a                   6.277
_cell_length_b                   15.181
_cell_length_c                   5.672
_cell_volume                     493.340
_diffrn_ambient_pressure         100
_exptl_crystal_density_diffrn    2.318
_[local]_cod_chemical_formula_sum_orig 'Ca S O6 H4'
_cod_database_code               9013164
_amcsd_database_code             AMCSD#0004650
loop_
_symmetry_equiv_pos_as_xyz
x,y,z
1/2+x,1/2+y,z
x,-y,1/2+z
1/2+x,1/2-y,1/2+z
-x,y,1/2-z
1/2-x,1/2+y,1/2-z
-x,-y,-z
1/2-x,1/2-y,-z

loop_
_atom_type_symbol
_atom_type_oxidation_number
Ca2+    2.000
S6+     6.000
O2-    -2.000
H1+     1.000

loop_
_atom_site_label
_atom_site_type_symbol
_atom_site_fract_x
_atom_site_fract_y
_atom_site_fract_z
_atom_site_U_iso_or_equiv
Ca Ca2+ 0.00000 0.17050 0.25000 0.01170
S S6+ 0.00000 0.32727 0.75000 0.00990
O1 O2- 0.08319 0.27218 0.59103 0.01690
O2 O2- 0.19997 0.38195 0.91298 0.01690
OW O2- -0.20823 0.06826 -0.07831 0.02410
H1 H1+ -0.25800 0.08700 -0.23400 0.03300
H2 H1+ -0.24400 0.02000 -0.07700 0.04400
