#------------------------------------------------------------------------------
#$Date: 2016-02-16 14:49:47 +0200 (Tue, 16 Feb 2016) $
#$Revision: 176465 $
#$URL: file:///home/coder/svn-repositories/cod/cif/9/00/22/9002213.cif $
#------------------------------------------------------------------------------
#
# This file is available in the Crystallography Open Database (COD),
# http://www.crystallography.net/
#
# All data on this site have been placed in the public domain by the
# contributors.
#
data_9002213
loop_
_publ_author_name
'Wilson R M'
'Elliot J C'
'Dowker S E P'
_publ_section_title
;
 Rietveld refinement of the crystallographic structure of human dental
 enamel apatites
 Sample: H6L, synthetic
;
_journal_name_full               'American Mineralogist'
_journal_page_first              1406
_journal_page_last               1414
_journal_volume                  84
_journal_year                    1999
_chemical_formula_sum            'Ca5 H O13 P3'
_chemical_name_mineral           Hydroxylapatite
_space_group_IT_number           176
_symmetry_space_group_name_Hall  '-P 6c'
_symmetry_space_group_name_H-M   'P 63/m'
_cell_angle_alpha                90
_cell_angle_beta                 90
_cell_angle_gamma                120
_cell_length_a                   9.4081
_cell_length_b                   9.4081
_cell_length_c                   6.8887
_cell_volume                     528.046
_cod_original_formula_sum        'Ca5 P3 O13 H'
_cod_database_code               9002213
loop_
_symmetry_equiv_pos_as_xyz
x,y,z
-x+y,-x,1/2-z
x-y,x,1/2+z
y,-x+y,-z
-y,x-y,z
x,y,1/2-z
-x,-y,1/2+z
x-y,x,-z
-x+y,-x,z
-y,x-y,1/2-z
y,-x+y,1/2+z
-x,-y,-z
loop_
_atom_site_label
_atom_site_fract_x
_atom_site_fract_y
_atom_site_fract_z
_atom_site_occupancy
Ca1 0.66667 0.33333 0.00070 1.00000
Ca2 0.24260 0.99040 0.25000 1.00000
P 0.39480 0.36570 0.25000 1.00000
O1 0.32700 0.48490 0.25000 1.00000
O2 0.57910 0.46180 0.25000 1.00000
O3 0.34170 0.25780 0.07110 1.00000
O-h 0.00000 0.00000 0.18370 0.50000
H 0.00000 0.00000 0.06080 0.50000
