#------------------------------------------------------------------------------
#$Date: 2008-03-10 08:25:41 +0000 (Mon, 10 Mar 2008) $
#$Revision: 255 $
#$URL: svn://cod.ibt.lt/cod/cif/9/9001283.cif $
#------------------------------------------------------------------------------
#
# This file is available in the Crystallography Open Database (COD),
# http://www.crystallography.net/
#
# All data on this site have been placed in the public domain by the
# contributors.
#
data_9001283
loop_
_publ_author_name
'Ross N L'
'Shu J F'
'Hazen R M'
'Gasparik T'
_publ_section_title
;
 High-pressure crystal chemistry of stishovite
 P = 15.0 Gpa
;
_journal_name_full               'American Mineralogist'
_journal_page_first              739
_journal_page_last               747
_journal_volume                  75
_journal_year                    1990
_chemical_formula_sum            'Si O2'
_chemical_name_mineral           Stishovite
_symmetry_space_group_name_H-M   'P 42/m n m'
_cell_angle_alpha                90
_cell_angle_beta                 90
_cell_angle_gamma                90
_cell_length_a                   4.1043
_cell_length_b                   4.1043
_cell_length_c                   2.6417
_cell_volume                     44.500
loop_
_symmetry_equiv_pos_as_xyz
x,y,z
-y,-x,z
y,x,-z
1/2+y,1/2-x,1/2-z
1/2-y,1/2+x,1/2+z
1/2+x,1/2-y,1/2+z
1/2-x,1/2+y,1/2-z
x,y,-z
-x,-y,z
y,x,z
-y,-x,-z
1/2-y,1/2+x,1/2-z
1/2+y,1/2-x,1/2+z
1/2-x,1/2+y,1/2+z
1/2+x,1/2-y,1/2-z
-x,-y,-z
loop_
_atom_type_symbol
_atom_type_oxidation_number
  Si4+   4.000
  O2-   -2.000
loop_
_atom_site_label
_atom_site_type_symbol
_atom_site_fract_x
_atom_site_fract_y
_atom_site_fract_z
_atom_site_U_iso_or_equiv
Si Si4+ 0.00000 0.00000 0.00000 -0.00063
O O2- 0.30530 0.30530 0.00000 0.00583
